Title: * Z:\home\srussell\Documents\Capacitive Distance Sensor\draft2.asc
Date: Mon Jun 04 14:38:48 2007
Plotname: Transient Analysis
Flags: real forward
No. Variables: 36
No. Points:            0
Offset:   0.0000000000000000e+000
Command: Linear Technology Corporation LTspice
Backannotation: u2 1 2 99 50 28
Variables:
